 variables="x","y","Vx","Vy","Vz","p"
 zone i=          196 ,j=          100
   0.101062938E+03   0.200000000E+02   0.651744924E-01  -0.954544351E-21  -0.177800699E-08   0.837708678E+00
   0.990629382E+02   0.200000000E+02   0.651755973E-01  -0.964295455E-21  -0.355555732E-08   0.837712298E+00
   0.970629382E+02   0.200000000E+02   0.652348734E-01   0.844392831E-22  -0.311493877E-08   0.836989602E+00
   0.950629382E+02   0.200000000E+02   0.682033941E-01   0.374595414E-21  -0.445718978E-08   0.836021526E+00
   0.930629382E+02   0.200000000E+02   0.844000880E-01  -0.345639364E-21  -0.466366190E-08   0.835548697E+00
   0.910629382E+02   0.200000000E+02   0.916889800E-01  -0.211758237E-21  -0.366911198E-08   0.835483006E+00
   0.890629382E+02   0.200000000E+02   0.952445541E-01   0.150427169E-05  -0.351187810E-08   0.835440147E+00
   0.870629382E+02   0.200000000E+02   0.954115249E-01   0.279086070E-04  -0.366403565E-08   0.836055920E+00
   0.850629382E+02   0.200000000E+02   0.954114950E-01   0.134646800E-02  -0.258444983E-08   0.871034229E+00
   0.830129382E+02   0.199711325E+02   0.941284125E-01   0.538027681E-01   0.120811241E-07   0.297684873E+01
   0.824663429E+02   0.196555556E+02   0.931803650E-01   0.537972764E-01   0.265458634E-07   0.297692447E+01
   0.818697476E+02   0.193111111E+02   0.460338919E-01   0.265776784E-01  -0.403881616E-09   0.304621448E+01
   0.812731523E+02   0.189666667E+02   0.242742184E-01   0.140147257E-01  -0.180519270E-07   0.308444010E+01
   0.806765570E+02   0.186222222E+02  -0.109349682E+00  -0.631311558E-01   0.312638163E-08   0.308361229E+01
   0.800799616E+02   0.182777778E+02  -0.109349660E+00  -0.631311415E-01   0.268961154E-08   0.308457006E+01
   0.794833663E+02   0.179333333E+02  -0.109349851E+00  -0.631334998E-01  -0.829440722E-08   0.308457862E+01
   0.788867710E+02   0.175888889E+02  -0.109637171E+00  -0.632990463E-01  -0.164823676E-08   0.307278748E+01
   0.782901757E+02   0.172444444E+02  -0.109795452E+00  -0.633904301E-01   0.218907030E-08   0.307081021E+01
   0.776935804E+02   0.169000000E+02  -0.111898115E+00  -0.646044033E-01   0.361646076E-08   0.306406093E+01
   0.770969851E+02   0.165555556E+02  -0.113266155E+00  -0.653942413E-01   0.751809501E-08   0.304583092E+01
   0.765003898E+02   0.162111111E+02  -0.120695931E+00  -0.696838239E-01   0.840875112E-08   0.302467804E+01
   0.759037945E+02   0.158666667E+02  -0.136378299E+00  -0.787380429E-01   0.680153741E-08   0.299252682E+01
   0.753071991E+02   0.155222222E+02  -0.150509903E+00  -0.868969282E-01   0.546995379E-08   0.297595659E+01
   0.747106038E+02   0.151777778E+02  -0.168025383E+00  -0.970094947E-01   0.519644186E-08   0.294131359E+01
   0.741140085E+02   0.148333333E+02  -0.181748303E+00  -0.104932426E+00   0.622894375E-08   0.293653640E+01
   0.735174132E+02   0.144888889E+02  -0.200217109E+00  -0.115595395E+00   0.759578840E-08   0.288631992E+01
   0.729208179E+02   0.141444444E+02  -0.217816681E+00  -0.125756512E+00   0.739033701E-08   0.288599061E+01
   0.723242226E+02   0.138000000E+02  -0.236780180E+00  -0.136705092E+00   0.704010363E-08   0.286959724E+01
   0.717276273E+02   0.134555556E+02  -0.247229518E+00  -0.142738020E+00   0.658026406E-08   0.284021991E+01
   0.711310319E+02   0.131111111E+02  -0.256206916E+00  -0.147921123E+00   0.548069881E-08   0.281674000E+01
   0.705344366E+02   0.127666667E+02  -0.265746729E+00  -0.153428936E+00   0.483964452E-08   0.280774382E+01
   0.699378413E+02   0.124222222E+02  -0.273967233E+00  -0.158175046E+00   0.244336228E-08   0.276175295E+01
   0.693412460E+02   0.120777778E+02  -0.275280569E+00  -0.158933301E+00  -0.232293977E-08   0.273241237E+01
   0.687446507E+02   0.117333333E+02  -0.276988496E+00  -0.159919373E+00  -0.472504532E-08   0.273154993E+01
   0.681480554E+02   0.113888889E+02  -0.278533184E+00  -0.160811200E+00  -0.453561457E-08   0.269361513E+01
   0.675514601E+02   0.110444444E+02  -0.282503633E+00  -0.163103539E+00  -0.536451471E-08   0.269303401E+01
   0.669548648E+02   0.107000000E+02  -0.290840114E+00  -0.167916608E+00  -0.529529470E-08   0.267777587E+01
   0.663582694E+02   0.103555556E+02  -0.296351687E+00  -0.171098717E+00  -0.882481874E-09   0.266537772E+01
   0.657616741E+02   0.100111111E+02  -0.304114142E+00  -0.175580371E+00   0.492980495E-08   0.265285129E+01
   0.651650788E+02   0.966666667E+01  -0.305406705E+00  -0.176326218E+00   0.883886305E-08   0.262270647E+01
   0.645684835E+02   0.932222222E+01  -0.305406668E+00  -0.176326192E+00   0.235227288E-07   0.259510158E+01
   0.639718882E+02   0.897777778E+01  -0.305107187E+00  -0.176153706E+00   0.368946071E-07   0.259281278E+01
   0.633752929E+02   0.863333333E+01  -0.304366590E+00  -0.175726123E+00   0.219672250E-07   0.259333994E+01
   0.627786976E+02   0.828888889E+01  -0.299807302E+00  -0.173093816E+00   0.424978571E-08   0.259516592E+01
   0.621821023E+02   0.794444444E+01  -0.299670861E+00  -0.173014611E+00   0.180596488E-09   0.260349076E+01
   0.615855069E+02   0.760000000E+01  -0.292900596E+00  -0.169106228E+00  -0.399275274E-09   0.260280715E+01
   0.609889116E+02   0.725555556E+01  -0.292299680E+00  -0.168758858E+00   0.467610809E-07   0.261489104E+01
   0.603923163E+02   0.691111111E+01  -0.262312838E+00  -0.151446379E+00   0.990740142E-07   0.260938537E+01
   0.597957210E+02   0.656666667E+01  -0.244854824E+00  -0.141366990E+00   0.521157296E-07   0.266207396E+01
   0.591991257E+02   0.622222222E+01  -0.491078829E-01  -0.283524478E-01  -0.914361779E-08   0.293305867E+01
   0.586025304E+02   0.587777778E+01   0.926537826E-01   0.534936832E-01  -0.161062322E-07   0.293001555E+01
   0.580059351E+02   0.553333333E+01   0.926537810E-01   0.534936823E-01  -0.140022695E-07   0.292993517E+01
   0.574093398E+02   0.518888889E+01   0.926295724E-01   0.534815781E-01  -0.906921577E-08   0.293020052E+01
   0.568127444E+02   0.484444444E+01   0.914751803E-01   0.532817173E-01  -0.321206720E-07   0.295379777E+01
   0.562661491E+02   0.452886751E+01   0.342792613E-01   0.535630282E-01  -0.627780701E-07   0.426618344E+01
   0.562161491E+02   0.445000000E+01  -0.749029692E-18   0.531132294E-01  -0.975846674E-07   0.554599413E+01
   0.562161491E+02   0.439534884E+01  -0.143509200E-17   0.621011881E-02  -0.104855557E-06   0.554591645E+01
   0.562161491E+02   0.429069767E+01   0.106862400E-18   0.621014155E-02  -0.429527584E-07   0.541273209E+01
   0.562161491E+02   0.418604651E+01   0.139568102E-18   0.779181595E-02  -0.181601048E-07   0.541273873E+01
   0.562161491E+02   0.408139535E+01   0.791730792E-19   0.779166255E-02  -0.456902816E-07   0.542882679E+01
   0.562161491E+02   0.397674419E+01   0.618557601E-19   0.705213391E-02  -0.523994663E-07   0.542851429E+01
   0.562161491E+02   0.387209302E+01   0.640301278E-19   0.256908309E-02  -0.340748107E-07   0.541857926E+01
   0.562161491E+02   0.376744186E+01   0.597195482E-19  -0.772773448E-02  -0.294940218E-07   0.541219003E+01
   0.562161491E+02   0.366279070E+01   0.549603590E-19  -0.158139795E-01  -0.325964124E-07   0.538882541E+01
   0.562161491E+02   0.355813953E+01   0.577882009E-19  -0.282076655E-01  -0.252320797E-07   0.537183131E+01
   0.562161491E+02   0.345348837E+01   0.560708091E-19  -0.399749378E-01  -0.155052789E-07   0.532589963E+01
   0.562161491E+02   0.334883721E+01   0.490144709E-19  -0.589802927E-01  -0.779258656E-08   0.529425195E+01
   0.562161491E+02   0.324418605E+01   0.549357475E-19  -0.683314124E-01   0.105973401E-08   0.525478208E+01
   0.562161491E+02   0.313953488E+01   0.114897479E-18  -0.827232437E-01   0.125504118E-07   0.522974882E+01
   0.562161491E+02   0.303488372E+01   0.981018233E-19  -0.864301858E-01   0.341078247E-07   0.514134686E+01
   0.562161491E+02   0.293023256E+01   0.514366592E-20  -0.100637106E+00   0.381512035E-07   0.513430344E+01
   0.562161491E+02   0.282558140E+01   0.224945333E-19  -0.105997205E+00   0.148153069E-07   0.510906650E+01
   0.562161491E+02   0.272093023E+01   0.210100939E-18  -0.108962608E+00  -0.499338309E-08   0.506615696E+01
   0.562161491E+02   0.261627907E+01   0.304622911E-18  -0.108962111E+00  -0.759389923E-08   0.493285878E+01
   0.562161491E+02   0.251162791E+01   0.249268799E-18  -0.107086718E+00  -0.783595792E-08   0.493284710E+01
   0.562161491E+02   0.240697674E+01   0.253090172E-18  -0.840441392E-01  -0.907979175E-08   0.493741646E+01
   0.562161491E+02   0.230232558E+01   0.222086845E-18  -0.612467673E-01  -0.977117075E-08   0.493888015E+01
   0.562161491E+02   0.219767442E+01   0.197083835E-18  -0.321817340E-01  -0.934688437E-08   0.493922159E+01
   0.562161491E+02   0.209302326E+01   0.183203746E-18  -0.605036927E-02  -0.106183179E-07   0.495907467E+01
   0.562161491E+02   0.198837209E+01   0.183363772E-18   0.183483808E-01  -0.117025218E-07   0.497754855E+01
   0.562161491E+02   0.188372093E+01   0.177534796E-18   0.249221831E-01  -0.172949065E-07   0.499159952E+01
   0.562161491E+02   0.177906977E+01   0.167186714E-18   0.265976135E-01  -0.303140372E-07   0.499388635E+01
   0.562161491E+02   0.167441860E+01   0.151715192E-18   0.265975974E-01  -0.469667709E-07   0.503509957E+01
   0.562161491E+02   0.156976744E+01   0.106726151E-18   0.263526454E-01  -0.441570879E-07   0.506580326E+01
   0.562161491E+02   0.146511628E+01  -0.113526145E-05   0.132486457E-01  -0.107204544E-06   0.506580476E+01
   0.562161491E+02   0.136046512E+01  -0.116397437E-04  -0.522968526E-01  -0.143916297E-05   0.506461069E+01
   0.562161491E+02   0.125581395E+01  -0.533079440E-03  -0.524335460E-01  -0.197246538E-04   0.500651353E+01
   0.562161491E+02   0.115116279E+01  -0.266049992E-01  -0.509795128E-01  -0.928269963E-03   0.233582115E+01
   0.562161491E+02   0.104651163E+01  -0.133020223E+01   0.464516867E-01  -0.464233896E-01   0.925501334E+00
   0.562161491E+02   0.941860465E+00  -0.133020223E+01   0.464516867E-01  -0.464233896E-01   0.925501334E+00
   0.562161491E+02   0.837209302E+00  -0.133020223E+01   0.464516867E-01  -0.464233896E-01   0.925501334E+00
   0.562161491E+02   0.732558140E+00  -0.133020223E+01   0.464516867E-01  -0.464233896E-01   0.925501334E+00
   0.562161491E+02   0.627906977E+00  -0.133020223E+01   0.464516867E-01  -0.464233896E-01   0.925501334E+00
   0.562161491E+02   0.523255814E+00  -0.133020223E+01   0.464516867E-01  -0.464233896E-01   0.925501334E+00
   0.562161491E+02   0.418604651E+00  -0.133020223E+01   0.464516867E-01  -0.464233896E-01   0.925501334E+00
   0.562161491E+02   0.313953488E+00  -0.133020223E+01   0.464516867E-01  -0.464233896E-01   0.925501334E+00
   0.562161491E+02   0.104651163E+00  -0.133020223E+01   0.464516867E-01  -0.464233896E-01   0.925501334E+00
   0.562161491E+02   0.000000000E+00  -0.133020223E+01   0.464516867E-01  -0.464233896E-01   0.925501334E+00
   0.562161491E+02   0.000000000E+00  -0.133020223E+01   0.464516867E-01  -0.464233896E-01   0.925501334E+00
   0.562161491E+02  -0.104077873E+00  -0.133020223E+01   0.464516867E-01  -0.464233896E-01   0.925501334E+00
   0.562161491E+02  -0.312233619E+00  -0.133020223E+01   0.464516867E-01  -0.464233896E-01   0.925501334E+00
   0.562161491E+02  -0.416311492E+00  -0.133020223E+01   0.464516867E-01  -0.464233896E-01   0.925501334E+00
   0.562161491E+02  -0.520389365E+00  -0.133020223E+01   0.464516867E-01  -0.464233896E-01   0.925501334E+00
   0.562161491E+02  -0.624467239E+00  -0.133020223E+01   0.464516867E-01  -0.464233896E-01   0.925501334E+00
   0.562161491E+02  -0.728545112E+00  -0.133020223E+01   0.464516867E-01  -0.464233896E-01   0.925501334E+00
   0.562161491E+02  -0.832622985E+00  -0.133020223E+01   0.464516867E-01  -0.464233896E-01   0.925501334E+00
   0.562161491E+02  -0.936700858E+00  -0.133020223E+01   0.464516867E-01  -0.464233896E-01   0.925501334E+00
   0.562161491E+02  -0.104077873E+01  -0.133020223E+01   0.464516867E-01  -0.464233896E-01   0.925501334E+00
   0.562161491E+02  -0.114485660E+01  -0.266049992E-01   0.860029843E-01  -0.701897116E-01   0.228396069E+01
   0.562161491E+02  -0.124893448E+01  -0.533079440E-03   0.863398089E-01  -0.706157398E-01   0.488279250E+01
   0.562161491E+02  -0.135301235E+01  -0.116397437E-04   0.857084897E-01  -0.706203212E-01   0.493988529E+01
   0.562161491E+02  -0.145709022E+01  -0.113526145E-05   0.710458341E-01  -0.706203210E-01   0.494104859E+01
   0.562161491E+02  -0.156116810E+01   0.284179554E-18   0.707512802E-01  -0.710020780E-01   0.496977099E+01
   0.562161491E+02  -0.166524597E+01   0.411054616E-18   0.694671140E-01  -0.712246754E-01   0.496257661E+01
   0.562161491E+02  -0.176932384E+01   0.411617071E-18   0.694454479E-01  -0.727032184E-01   0.496241613E+01
   0.562161491E+02  -0.187340172E+01   0.450943351E-18   0.694452882E-01  -0.777669015E-01   0.495358489E+01
   0.562161491E+02  -0.197747959E+01   0.510809197E-18   0.722539358E-01  -0.797478279E-01   0.493029316E+01
   0.562161491E+02  -0.208155746E+01   0.546530528E-18   0.761379434E-01  -0.832069563E-01   0.492813827E+01
   0.562161491E+02  -0.218563533E+01   0.548359259E-18   0.800955891E-01  -0.883849786E-01   0.489497532E+01
   0.562161491E+02  -0.228971321E+01   0.593640421E-18   0.862178237E-01  -0.919718929E-01   0.485896722E+01
   0.562161491E+02  -0.239379108E+01   0.628501756E-18   0.911509174E-01  -0.924722464E-01   0.483001614E+01
   0.562161491E+02  -0.249786895E+01   0.625257514E-18   0.960134707E-01  -0.101862538E+00   0.482935600E+01
   0.562161491E+02  -0.260194683E+01   0.655186272E-18   0.101580269E+00  -0.107103502E+00   0.481096828E+01
   0.562161491E+02  -0.270602470E+01   0.648253059E-18   0.105874469E+00  -0.116415238E+00   0.477715365E+01
   0.562161491E+02  -0.281010257E+01   0.602614203E-18   0.110915430E+00  -0.122753998E+00   0.471844138E+01
   0.562161491E+02  -0.291418045E+01   0.601022053E-18   0.115835239E+00  -0.129495712E+00   0.469127124E+01
   0.562161491E+02  -0.301825832E+01   0.678040123E-18   0.120647989E+00  -0.136163927E+00   0.468686723E+01
   0.562161491E+02  -0.312233619E+01   0.665618442E-18   0.125026249E+00  -0.136544676E+00   0.468801676E+01
   0.562161491E+02  -0.322641407E+01   0.617031061E-18   0.132715741E+00  -0.138298646E+00   0.468807040E+01
   0.562161491E+02  -0.333049194E+01   0.561802114E-18   0.132859577E+00  -0.140200517E+00   0.472001610E+01
   0.562161491E+02  -0.343456981E+01   0.491583415E-18   0.132859578E+00  -0.140722571E+00   0.473563957E+01
   0.562161491E+02  -0.353864769E+01   0.372848027E-18   0.115914613E+00  -0.140729077E+00   0.475467776E+01
   0.562161491E+02  -0.364272556E+01   0.168908761E-18   0.100985414E+00  -0.140729075E+00   0.475533856E+01
   0.562161491E+02  -0.374680343E+01   0.477973980E-19   0.888691161E-01  -0.143315860E+00   0.482775606E+01
   0.562161491E+02  -0.385088130E+01   0.387865887E-20   0.700932709E-01  -0.148064402E+00   0.486373691E+01
   0.562161491E+02  -0.395495918E+01   0.454372639E-19   0.419192118E-01  -0.148143278E+00   0.497268926E+01
   0.562161491E+02  -0.405903705E+01   0.468050782E-19   0.177935076E-01  -0.148119241E+00   0.497336794E+01
   0.562161491E+02  -0.416311492E+01   0.956091511E-20  -0.204335983E-01  -0.139405927E+00   0.497919854E+01
   0.562161491E+02  -0.426719280E+01   0.709556339E-19  -0.412784235E-01  -0.137043612E+00   0.497916961E+01
   0.562161491E+02  -0.437127067E+01  -0.154233481E-19  -0.659295257E-01  -0.111154885E+00   0.497915568E+01
   0.562161491E+02  -0.442562245E+01  -0.345726191E-17  -0.818448325E-01  -0.827237065E-01   0.498754359E+01
   0.562661491E+02  -0.450405792E+01   0.463797976E-01  -0.818484471E-01  -0.823324754E-01   0.498531350E+01
   0.568127444E+02  -0.481790609E+01   0.576587751E-01  -0.453756336E-01  -0.823323897E-01   0.300026539E+01
   0.574093398E+02  -0.516046363E+01   0.577066623E-01  -0.395139558E-01  -0.561133156E-01   0.296457077E+01
   0.580059351E+02  -0.550302117E+01   0.577064976E-01  -0.382561041E-01  -0.453030102E-01   0.296129187E+01
   0.586025304E+02  -0.584557871E+01   0.587498847E-01  -0.375583535E-01  -0.328292679E-01   0.296105269E+01
   0.591991257E+02  -0.618813626E+01   0.587498897E-01  -0.356364178E-01  -0.144285889E-01   0.300366617E+01
   0.597957210E+02  -0.653069380E+01  -0.446044646E-01   0.258664231E-01  -0.264110687E-03   0.302514988E+01
   0.603923163E+02  -0.687325134E+01  -0.494193608E-01   0.286907119E-01   0.138623221E-04   0.304165347E+01
   0.609889116E+02  -0.721580889E+01  -0.495167817E-01   0.287482869E-01   0.163881186E-04   0.304196807E+01
   0.615855069E+02  -0.755836643E+01  -0.857956814E-01   0.498083293E-01   0.610614529E-05   0.301735915E+01
   0.621821023E+02  -0.790092397E+01  -0.116558239E+00   0.676658571E-01  -0.151931899E-05   0.287353528E+01
   0.627786976E+02  -0.824348151E+01  -0.126060675E+00   0.731656757E-01  -0.155875631E-03   0.287228596E+01
   0.633752929E+02  -0.858603906E+01  -0.129070217E+00   0.738265523E-01  -0.104909026E-01   0.287218667E+01
   0.639718882E+02  -0.892859660E+01  -0.131756179E+00   0.745579070E-01  -0.183681138E-01   0.287663477E+01
   0.645684835E+02  -0.927115414E+01  -0.141262531E+00   0.783609690E-01  -0.346702012E-01   0.287270083E+01
   0.651650788E+02  -0.961371168E+01  -0.158716865E+00   0.876654053E-01  -0.425726781E-01   0.285306938E+01
   0.657616741E+02  -0.995626923E+01  -0.198759554E+00   0.110067250E+00  -0.506033217E-01   0.278894247E+01
   0.663582694E+02  -0.102988268E+02  -0.228851444E+00   0.127275633E+00  -0.530677213E-01   0.270246121E+01
   0.669548648E+02  -0.106413843E+02  -0.237327127E+00   0.132189084E+00  -0.531333719E-01   0.267678999E+01
   0.675514601E+02  -0.109839419E+02  -0.249480088E+00   0.139241736E+00  -0.531333741E-01   0.259937112E+01
   0.681480554E+02  -0.113264994E+02  -0.269580682E+00   0.151110566E+00  -0.512629709E-01   0.253941072E+01
   0.687446507E+02  -0.116690569E+02  -0.275769274E+00   0.155740361E+00  -0.413997046E-01   0.254114713E+01
   0.693412460E+02  -0.120116145E+02  -0.275894084E+00   0.156739805E+00  -0.325764918E-01   0.254316551E+01
   0.699378413E+02  -0.123541720E+02  -0.275894185E+00   0.157358423E+00  -0.268077789E-01   0.254884256E+01
   0.705344366E+02  -0.126967296E+02  -0.272306079E+00   0.157358443E+00  -0.673110014E-02   0.265522392E+01
   0.711310319E+02  -0.130392871E+02  -0.248226556E+00   0.143315276E+00  -0.632819093E-02   0.274465480E+01
   0.717276273E+02  -0.133818447E+02  -0.210884790E+00   0.121747371E+00  -0.537805287E-02   0.279131245E+01
   0.723242226E+02  -0.137244022E+02  -0.181752548E+00   0.105391726E+00  -0.114913351E-02   0.284265695E+01
   0.729208179E+02  -0.140669597E+02  -0.162472243E+00   0.942048306E-01  -0.106869227E-02   0.287897488E+01
   0.735174132E+02  -0.144095173E+02  -0.148967152E+00   0.863598482E-01  -0.106868970E-02   0.290786067E+01
   0.741140085E+02  -0.147520748E+02  -0.134765531E+00   0.778775669E-01  -0.337502822E-02   0.293570164E+01
   0.747106038E+02  -0.150946324E+02  -0.125414121E+00   0.721122915E-01  -0.660676963E-02   0.293282039E+01
   0.753071991E+02  -0.154371899E+02  -0.117330992E+00   0.672967565E-01  -0.778601665E-02   0.294999573E+01
   0.759037945E+02  -0.157797475E+02  -0.108043018E+00   0.618617188E-01  -0.818731903E-02   0.294550310E+01
   0.765003898E+02  -0.161223050E+02  -0.940022216E-01   0.537081188E-01  -0.819643451E-02   0.296331207E+01
   0.770969851E+02  -0.164648625E+02  -0.931193820E-01   0.531956766E-01  -0.819643576E-02   0.296478205E+01
   0.776935804E+02  -0.168074201E+02  -0.893895835E-01   0.511450572E-01  -0.721940150E-02   0.296795965E+01
   0.782901757E+02  -0.171499776E+02  -0.891685460E-01   0.511026511E-01  -0.627777647E-02   0.298868494E+01
   0.788867710E+02  -0.174925352E+02  -0.874461096E-01   0.501245601E-01  -0.608578206E-02   0.299776359E+01
   0.794833663E+02  -0.178350927E+02  -0.872896105E-01   0.500255185E-01  -0.608091942E-02   0.299743188E+01
   0.800799616E+02  -0.181776503E+02  -0.872848034E-01   0.500225488E-01  -0.607381990E-02   0.300129310E+01
   0.806765570E+02  -0.185202078E+02  -0.872848182E-01   0.500225568E-01  -0.607382058E-02   0.299963520E+01
   0.812731523E+02  -0.188627653E+02   0.132451418E-01  -0.773019383E-02  -0.367476469E-03   0.300540192E+01
   0.818697476E+02  -0.192053229E+02   0.261108980E-01  -0.151681197E-01  -0.621233532E-04   0.300343320E+01
   0.824663429E+02  -0.195478804E+02   0.727915751E-01  -0.419771695E-01   0.266024976E-02   0.295330524E+01
   0.830129382E+02  -0.198617286E+02   0.737292367E-01  -0.419839811E-01   0.266085904E-02   0.295318688E+01
   0.850629382E+02  -0.198904380E+02   0.742107444E-01  -0.125466303E-02  -0.191463991E-02   0.900139938E+00
   0.870629382E+02  -0.198904380E+02   0.741740396E-01  -0.358243372E-03  -0.319640550E-02   0.866197884E+00
   0.890629382E+02  -0.198904380E+02   0.741740396E-01  -0.340404627E-03  -0.322272952E-02   0.865529338E+00
   0.910629382E+02  -0.198904380E+02   0.795453752E-01  -0.339104469E-03  -0.322424632E-02   0.865516823E+00
   0.930629382E+02  -0.198904380E+02   0.858386144E-01  -0.338748075E-03  -0.322091864E-02   0.865673022E+00
   0.950629382E+02  -0.198904380E+02   0.877917266E-01  -0.340512464E-03  -0.323782291E-02   0.867067011E+00
   0.970629382E+02  -0.198904380E+02   0.882588591E-01  -0.348171027E-03  -0.331100429E-02   0.867243057E+00
   0.990629382E+02  -0.198904380E+02   0.882692175E-01  -0.349036635E-03  -0.331928846E-02   0.867253871E+00
   0.101062938E+03  -0.198904380E+02   0.882695725E-01  -0.349196863E-03  -0.332238837E-02   0.867260146E+00
   0.101062938E+03   0.200810649E+02   0.118818039E+00  -0.132022228E-02  -0.214361889E-08   0.838430239E+00
   0.990629382E+02   0.200810811E+02   0.118818951E+00  -0.131958265E-02  -0.401865240E-08   0.838422655E+00
   0.970629382E+02   0.200810986E+02   0.118859336E+00  -0.130293690E-02  -0.405963709E-08   0.838443571E+00
   0.950629382E+02   0.200811176E+02   0.120874612E+00  -0.446109429E-03  -0.456577912E-08   0.840431841E+00
   0.930629382E+02   0.200811379E+02   0.134411131E+00  -0.446111796E-03  -0.479195099E-08   0.842637831E+00
   0.910629382E+02   0.200811598E+02   0.138914040E+00  -0.458918381E-03  -0.428444189E-08   0.842584700E+00
   0.890629382E+02   0.200811831E+02   0.139005888E+00  -0.465064562E-03  -0.404612153E-08   0.842542033E+00
   0.870629382E+02   0.200812079E+02   0.139301129E+00  -0.360453778E-03  -0.438623567E-08   0.843020268E+00
   0.850629382E+02   0.200812340E+02   0.139306078E+00   0.526874867E-02  -0.529386294E-08   0.871134504E+00
   0.830129382E+02   0.200524499E+02   0.138588052E+00   0.837591722E-01   0.267697449E-08   0.204342206E+01
   0.824483810E+02   0.197355660E+02   0.959254432E-01   0.837442053E-01   0.781245760E-08   0.304676745E+01
   0.818418642E+02   0.193891004E+02   0.789125329E-01   0.293077714E-01  -0.139458165E-08   0.304811643E+01
   0.812394378E+02   0.190432816E+02   0.511326957E-01   0.293077934E-01  -0.920776233E-08   0.305008162E+01
   0.806393235E+02   0.186982002E+02   0.511326996E-01   0.292956862E-01   0.199029185E-08   0.308438276E+01
   0.800404266E+02   0.183536166E+02   0.511314316E-01   0.276775687E-01   0.213557376E-08   0.308475773E+01
   0.794432779E+02   0.180098711E+02   0.509278221E-01   0.276761170E-01  -0.211565325E-08   0.308455361E+01
   0.788461286E+02   0.176661526E+02   0.499861230E-01   0.276536552E-01   0.115012274E-08   0.307737862E+01
   0.782489676E+02   0.173224549E+02   0.496178691E-01   0.270370241E-01   0.274219313E-08   0.307192794E+01
   0.776517956E+02   0.169787769E+02   0.463576639E-01   0.255504816E-01   0.426353255E-08   0.306404995E+01
   0.770546130E+02   0.166351175E+02   0.415690805E-01   0.226333171E-01   0.733259099E-08   0.304636955E+01
   0.764574205E+02   0.162914755E+02   0.365315027E-01   0.202336691E-01   0.815857648E-08   0.302701668E+01
   0.758602187E+02   0.159478498E+02   0.328018393E-01   0.172210940E-01   0.675023216E-08   0.299339187E+01
   0.752630082E+02   0.156042392E+02   0.303793109E-01   0.152291341E-01   0.599053362E-08   0.297628754E+01
   0.746657899E+02   0.152606421E+02   0.262488220E-01   0.129915275E-01   0.588188957E-08   0.295017184E+01
   0.740685644E+02   0.149170572E+02   0.160602502E-01   0.620850528E-02   0.697426046E-08   0.293702261E+01
   0.734713325E+02   0.145734830E+02   0.189151971E-02  -0.249000520E-02   0.777878432E-08   0.289426943E+01
   0.728740951E+02   0.142299178E+02  -0.950351809E-02  -0.952318363E-02   0.702374286E-08   0.288803313E+01
   0.722768532E+02   0.138863598E+02  -0.208848303E-01  -0.171228282E-01   0.620417859E-08   0.287295838E+01
   0.716796078E+02   0.135428070E+02  -0.353238024E-01  -0.250882247E-01   0.558933645E-08   0.284566272E+01
   0.710823599E+02   0.131992573E+02  -0.485002624E-01  -0.341218810E-01   0.447093497E-08   0.282259968E+01
   0.704851109E+02   0.128557083E+02  -0.617161932E-01  -0.407835081E-01   0.380959639E-08   0.281289129E+01
   0.698878621E+02   0.125121575E+02  -0.757794528E-01  -0.477296092E-01   0.147616617E-08   0.276925742E+01
   0.692906149E+02   0.121686020E+02  -0.863986563E-01  -0.551419601E-01  -0.273304429E-08   0.273591820E+01
   0.686933710E+02   0.118250387E+02  -0.100892449E+00  -0.605780528E-01  -0.458147347E-08   0.273618324E+01
   0.680961323E+02   0.114814641E+02  -0.110353200E+00  -0.654481274E-01  -0.432090195E-08   0.270545969E+01
   0.674989006E+02   0.111378746E+02  -0.112535718E+00  -0.689751805E-01  -0.489953375E-08   0.269393541E+01
   0.669016784E+02   0.107942658E+02  -0.115974073E+00  -0.689884194E-01  -0.467642665E-08   0.268146589E+01
   0.663044680E+02   0.104506330E+02  -0.116603019E+00  -0.689835907E-01  -0.888194535E-09   0.267423727E+01
   0.657072723E+02   0.101069714E+02  -0.118532935E+00  -0.687959682E-01   0.472381351E-08   0.265270561E+01
   0.651100941E+02   0.976327530E+01  -0.119020039E+00  -0.679751251E-01   0.902088638E-08   0.262264461E+01
   0.645129369E+02   0.941953866E+01  -0.119019809E+00  -0.664168220E-01   0.231367534E-07   0.259246652E+01
   0.639158042E+02   0.907575515E+01  -0.118529518E+00  -0.664124169E-01   0.363500449E-07   0.259227160E+01
   0.633186998E+02   0.873191804E+01  -0.117931847E+00  -0.664175841E-01   0.216436513E-07   0.259658370E+01
   0.627216279E+02   0.838802006E+01  -0.117701710E+00  -0.664105912E-01   0.466303861E-08   0.259959963E+01
   0.621245926E+02   0.804405415E+01  -0.117701723E+00  -0.662082328E-01   0.595004144E-09   0.260349190E+01
   0.615275982E+02   0.770001331E+01  -0.117731546E+00  -0.656602548E-01  -0.596135712E-09   0.260482278E+01
   0.609306489E+02   0.735589059E+01  -0.117731319E+00  -0.656378744E-01   0.450551746E-07   0.261470107E+01
   0.603337485E+02   0.701168003E+01  -0.117636380E+00  -0.645742665E-01   0.964134299E-07   0.261986444E+01
   0.597369006E+02   0.666737648E+01  -0.112761680E+00  -0.619162272E-01   0.505506833E-07   0.265230748E+01
   0.591401080E+02   0.632297596E+01  -0.485897588E-01   0.921220300E-02  -0.999077781E-08   0.293589461E+01
   0.585433729E+02   0.597847599E+01   0.947061504E-01   0.599333208E-01  -0.150174088E-07   0.293579562E+01
   0.579466966E+02   0.563387566E+01   0.982243084E-01   0.608323279E-01  -0.130758513E-07   0.293581984E+01
   0.573500792E+02   0.528917560E+01   0.991922209E-01   0.623892598E-01  -0.155069334E-07   0.293658185E+01
   0.567535205E+02   0.494437797E+01   0.992266182E-01   0.140124265E+00  -0.323460267E-07   0.295944299E+01
   0.561745598E+02   0.459983672E+01   0.988657965E-01   0.160962388E+00  -0.341797970E-07   0.414614561E+01
   0.561046678E+02   0.448231216E+01   0.744157758E-01   0.160959174E+00  -0.373441301E-07   0.533846215E+01
   0.561004939E+02   0.440562754E+01   0.580758683E-03   0.147831614E+00  -0.405445866E-07   0.535875307E+01
   0.561008419E+02   0.430074065E+01   0.580755474E-03   0.131652910E+00  -0.212103731E-07   0.538686926E+01
   0.561012372E+02   0.419584736E+01   0.722683909E-02   0.103107617E+00  -0.181600559E-07   0.541243851E+01
   0.561016732E+02   0.409094848E+01   0.103329270E-01   0.886054641E-01  -0.402259544E-07   0.542824177E+01
   0.561021430E+02   0.398604475E+01   0.112469602E-01   0.554308807E-01  -0.484133970E-07   0.542846541E+01
   0.561026399E+02   0.388113687E+01   0.119633438E-01   0.378460896E-01  -0.332515588E-07   0.542010769E+01
   0.561031576E+02   0.377622546E+01   0.119633422E-01   0.178124451E-01  -0.284610661E-07   0.541431204E+01
   0.561036902E+02   0.367131108E+01   0.119503977E-01  -0.183342775E-02  -0.274939817E-07   0.540176103E+01
   0.561042322E+02   0.356639420E+01   0.112648423E-01  -0.238013115E-01  -0.202313429E-07   0.537180465E+01
   0.561047784E+02   0.346147525E+01   0.983944260E-02  -0.353234994E-01  -0.121672345E-07   0.532589749E+01
   0.561053240E+02   0.335655460E+01   0.861158385E-02  -0.532666301E-01  -0.543538576E-08   0.529425117E+01
   0.561058645E+02   0.325163257E+01   0.750187255E-02  -0.645152984E-01   0.851235080E-09   0.525477631E+01
   0.561063960E+02   0.314670945E+01   0.603082092E-02  -0.813422627E-01   0.116231202E-07   0.520329748E+01
   0.561069144E+02   0.304178547E+01   0.177150307E-03  -0.863634011E-01   0.331422571E-07   0.513117316E+01
   0.561074163E+02   0.293686085E+01   0.721730895E-05  -0.100628832E+00   0.396591202E-07   0.505804471E+01
   0.561078986E+02   0.283193576E+01   0.165101373E-05  -0.105995712E+00   0.201177140E-07   0.505086555E+01
   0.561083582E+02   0.272701034E+01  -0.119568470E-02  -0.107401984E+00  -0.143446502E-08   0.499767875E+01
   0.561087924E+02   0.262208473E+01  -0.110599713E-01  -0.107401180E+00  -0.663954643E-08   0.491185635E+01
   0.561091982E+02   0.251715905E+01  -0.149357498E-01  -0.105747214E+00  -0.592762325E-08   0.491417863E+01
   0.561095738E+02   0.241223336E+01  -0.218125273E-01  -0.839941484E-01  -0.527290367E-08   0.492596395E+01