 variables="x","y","Vx","Vy","Vz","p"
 zone i=          196 ,j=          100
   0.101062938E+03   0.200000000E+02   0.264506801E+00  -0.962235288E-22   0.262876692E-08   0.247188752E+03
   0.990629382E+02   0.200000000E+02   0.264517129E+00  -0.514488047E-22   0.525754449E-08   0.247188818E+03
   0.970629382E+02   0.200000000E+02   0.265485537E+00   0.161432818E-21   0.356443976E-08   0.247189733E+03
   0.950629382E+02   0.200000000E+02   0.277029065E+00   0.355207756E-22   0.415713143E-08   0.247104921E+03
   0.930629382E+02   0.200000000E+02   0.277100985E+00  -0.112533258E-20   0.555713318E-08   0.246921650E+03
   0.910629382E+02   0.200000000E+02   0.280632581E+00  -0.254109884E-20   0.666300566E-08   0.246852171E+03
   0.890629382E+02   0.200000000E+02   0.280644223E+00   0.272736129E-05   0.130984579E-06   0.246357708E+03
   0.870629382E+02   0.200000000E+02   0.281167892E+00   0.879192097E-04   0.147961822E-05   0.246334432E+03
   0.850629382E+02   0.200000000E+02   0.307452266E+00   0.434697590E-02   0.299240294E-05   0.248546787E+03
   0.830129382E+02   0.199711325E+02   0.307394820E+00   0.175846073E+00   0.427253035E-06   0.340468301E+03
   0.824663429E+02   0.196555556E+02   0.304548115E+00   0.175830926E+00  -0.571862479E-07   0.340493753E+03
   0.818697476E+02   0.193111111E+02   0.278412139E+00   0.160741314E+00   0.315739978E-08   0.340477264E+03
   0.812731523E+02   0.189666667E+02   0.278412317E+00   0.160741417E+00   0.125891912E-07   0.340489590E+03
   0.806765570E+02   0.186222222E+02   0.278989775E+00   0.161074812E+00  -0.368403224E-08   0.340669307E+03
   0.800799616E+02   0.182777778E+02   0.279001654E+00   0.161082094E+00  -0.800146625E-08   0.341126824E+03
   0.794833663E+02   0.179333333E+02   0.279538146E+00   0.161391415E+00  -0.636775175E-08   0.341128494E+03
   0.788867710E+02   0.175888889E+02   0.281383116E+00   0.162456859E+00  -0.522679317E-08   0.341413983E+03
   0.782901757E+02   0.172444444E+02   0.281383116E+00   0.162456859E+00  -0.384173626E-08   0.341516127E+03
   0.776935804E+02   0.169000000E+02   0.281412008E+00   0.162473289E+00  -0.210204929E-08   0.341519917E+03
   0.770969851E+02   0.165555556E+02   0.281414431E+00   0.162474423E+00  -0.187410750E-08   0.341716588E+03
   0.765003898E+02   0.162111111E+02   0.281378983E+00   0.162453798E+00  -0.183442823E-08   0.342440403E+03
   0.759037945E+02   0.158666667E+02   0.279040622E+00   0.161104169E+00  -0.374714386E-09   0.343202364E+03
   0.753071991E+02   0.155222222E+02   0.273723069E+00   0.158034078E+00   0.543737956E-08   0.344054967E+03
   0.747106038E+02   0.151777778E+02   0.265562214E+00   0.153322407E+00   0.116662603E-07   0.344445773E+03
   0.741140085E+02   0.148333333E+02   0.249802018E+00   0.144223254E+00   0.933290009E-08   0.344932197E+03
   0.735174132E+02   0.144888889E+02   0.228540345E+00   0.131947822E+00   0.331691586E-08   0.345586827E+03
   0.729208179E+02   0.141444444E+02   0.225239370E+00   0.130042003E+00   0.414926417E-08   0.346202492E+03
   0.723242226E+02   0.138000000E+02   0.213233042E+00   0.123110147E+00   0.370673105E-08   0.346245168E+03
   0.717276273E+02   0.134555556E+02   0.204449446E+00   0.118038936E+00  -0.260554670E-08   0.346676481E+03
   0.711310319E+02   0.131111111E+02   0.198536997E+00   0.114625382E+00  -0.220890083E-08   0.347563873E+03
   0.705344366E+02   0.127666667E+02   0.185185192E+00   0.106916714E+00   0.574641904E-08   0.348345966E+03
   0.699378413E+02   0.124222222E+02   0.173091792E+00   0.999345871E-01   0.125231075E-07   0.348551434E+03
   0.693412460E+02   0.120777778E+02   0.159225851E+00   0.919290829E-01   0.179560945E-07   0.348619221E+03
   0.687446507E+02   0.117333333E+02   0.144541429E+00   0.834510280E-01   0.287561490E-07   0.348622641E+03
   0.681480554E+02   0.113888889E+02   0.128047316E+00   0.739281479E-01   0.461828512E-07   0.348328294E+03
   0.675514601E+02   0.110444444E+02   0.111061401E+00   0.641213261E-01   0.585980468E-07   0.347645726E+03
   0.669548648E+02   0.107000000E+02   0.957542678E-01   0.552837491E-01   0.570777792E-07   0.346704953E+03
   0.663582694E+02   0.103555556E+02   0.802117725E-01   0.463102857E-01   0.469778579E-07   0.345909246E+03
   0.657616741E+02   0.100111111E+02   0.621360991E-01   0.358742915E-01   0.296864588E-07   0.345283249E+03
   0.651650788E+02   0.966666667E+01   0.475073682E-01   0.274283902E-01   0.465093543E-08   0.344779278E+03
   0.645684835E+02   0.932222222E+01   0.450832403E-01   0.260292240E-01  -0.136769909E-07   0.344689972E+03
   0.639718882E+02   0.897777778E+01   0.450838852E-01   0.260296095E-01  -0.225177544E-07   0.344679200E+03
   0.633752929E+02   0.863333333E+01   0.470265290E-01   0.271507776E-01  -0.330415889E-07   0.344790826E+03
   0.627786976E+02   0.828888889E+01   0.504946042E-01   0.291530716E-01  -0.445887358E-07   0.345443274E+03
   0.621821023E+02   0.794444444E+01   0.544586585E-01   0.314417193E-01  -0.568960661E-07   0.346035379E+03
   0.615855069E+02   0.760000000E+01   0.592296544E-01   0.341958368E-01  -0.572233513E-07   0.347762384E+03
   0.609889116E+02   0.725555556E+01   0.592292666E-01   0.341956054E-01  -0.382008978E-07   0.349613898E+03
   0.603923163E+02   0.691111111E+01   0.571099331E-01   0.329724334E-01  -0.391799046E-07   0.351496954E+03
   0.597957210E+02   0.656666667E+01   0.506307442E-01   0.292316721E-01  -0.543220597E-07   0.352789316E+03
   0.591991257E+02   0.622222222E+01   0.373557184E-01   0.215673328E-01  -0.239738405E-07   0.352872466E+03
   0.586025304E+02   0.587777778E+01   0.114512867E-01   0.661140306E-02  -0.388869993E-07   0.352853930E+03
   0.580059351E+02   0.553333333E+01   0.230807220E-02   0.133256603E-02   0.312622413E-08   0.352762841E+03
   0.574093398E+02   0.518888889E+01  -0.215951996E-01  -0.126045862E-01   0.619385461E-06   0.348916851E+03
   0.568127444E+02   0.484444444E+01  -0.215929059E-01  -0.127575188E-01   0.486196441E-06   0.348899411E+03
   0.562661491E+02   0.452886751E+01  -0.966401827E-02  -0.154442628E-01  -0.108581209E-05   0.351500933E+03
   0.562161491E+02   0.445000000E+01   0.248685857E-16  -0.149344894E+00  -0.165395696E-05   0.351444272E+03
   0.562161491E+02   0.439534884E+01   0.140324487E-16  -0.244734031E+00  -0.139930761E-05   0.347179776E+03
   0.562161491E+02   0.429069767E+01   0.153802605E-16  -0.338080877E+00  -0.146773105E-05   0.342059430E+03
   0.562161491E+02   0.418604651E+01   0.138863162E-16  -0.427990571E+00  -0.110441893E-05   0.327400226E+03
   0.562161491E+02   0.408139535E+01   0.156685964E-16  -0.478376645E+00   0.663476166E-07   0.322871081E+03
   0.562161491E+02   0.397674419E+01   0.140476493E-16  -0.588453472E+00   0.115419671E-05   0.307103129E+03
   0.562161491E+02   0.387209302E+01   0.359838499E-17  -0.642869864E+00   0.139399836E-05   0.298377139E+03
   0.562161491E+02   0.376744186E+01   0.177412605E-17  -0.657411978E+00   0.116302502E-05   0.297082740E+03
   0.562161491E+02   0.366279070E+01   0.237970248E-17  -0.661274209E+00   0.103817459E-05   0.295171941E+03
   0.562161491E+02   0.355813953E+01   0.225540393E-17  -0.678900868E+00   0.111831177E-05   0.290214638E+03
   0.562161491E+02   0.345348837E+01   0.135711163E-17  -0.704323614E+00   0.117313368E-05   0.285294568E+03
   0.562161491E+02   0.334883721E+01   0.495672267E-18  -0.707360574E+00   0.984240272E-06   0.283492657E+03
   0.562161491E+02   0.324418605E+01  -0.663503714E-19  -0.711664341E+00   0.536883955E-06   0.280943255E+03
   0.562161491E+02   0.313953488E+01  -0.900640064E-18  -0.711715523E+00  -0.256275059E-06   0.279979205E+03
   0.562161491E+02   0.303488372E+01  -0.831659250E-18  -0.710340710E+00  -0.869172045E-06   0.279976264E+03
   0.562161491E+02   0.293023256E+01  -0.113066611E-17  -0.704578360E+00  -0.121446542E-05   0.280204266E+03
   0.562161491E+02   0.282558140E+01  -0.108316816E-17  -0.695486273E+00  -0.148068218E-05   0.280991903E+03
   0.562161491E+02   0.272093023E+01   0.175420761E-18  -0.681776509E+00  -0.151273286E-05   0.282848214E+03
   0.562161491E+02   0.261627907E+01   0.802691596E-18  -0.670238554E+00  -0.135001072E-05   0.285282474E+03
   0.562161491E+02   0.251162791E+01   0.134086463E-17  -0.656611515E+00  -0.107430138E-05   0.287239634E+03
   0.562161491E+02   0.240697674E+01   0.185652710E-17  -0.649259677E+00  -0.731355612E-06   0.289635176E+03
   0.562161491E+02   0.230232558E+01   0.238494935E-17  -0.641459675E+00  -0.304757533E-06   0.291347008E+03
   0.562161491E+02   0.219767442E+01   0.234924914E-17  -0.641323750E+00   0.122745592E-06   0.293368500E+03
   0.562161491E+02   0.209302326E+01   0.168648513E-17  -0.634590394E+00   0.494635341E-06   0.293458570E+03
   0.562161491E+02   0.198837209E+01   0.157189428E-17  -0.634060616E+00   0.315764502E-06   0.297848991E+03
   0.562161491E+02   0.188372093E+01  -0.163295302E-17  -0.607942586E+00  -0.117898786E-06   0.298202075E+03
   0.562161491E+02   0.177906977E+01  -0.142571118E-17  -0.590810539E+00  -0.391050098E-06   0.307707699E+03
   0.562161491E+02   0.167441860E+01   0.304560309E-17  -0.424812398E+00  -0.109856163E-05   0.341251543E+03
   0.562161491E+02   0.156976744E+01   0.368713442E-17  -0.424817774E+00  -0.130641490E-05   0.341242486E+03
   0.562161491E+02   0.146511628E+01  -0.113526145E-05  -0.424736439E+00  -0.204231968E-05   0.341364301E+03
   0.562161491E+02   0.136046512E+01  -0.116397437E-04  -0.406853720E+00  -0.493510301E-05   0.341393516E+03
   0.562161491E+02   0.125581395E+01  -0.533079440E-03  -0.406830581E+00  -0.245228841E-04   0.340939693E+03
   0.562161491E+02   0.115116279E+01  -0.266049992E-01  -0.400633555E+00  -0.935542091E-03   0.314893680E+03
   0.562161491E+02   0.104651163E+01  -0.133020223E+01  -0.464516867E-01  -0.464233896E-01   0.254736703E+03
   0.562161491E+02   0.941860465E+00  -0.133020223E+01  -0.464516867E-01  -0.464233896E-01   0.254736703E+03
   0.562161491E+02   0.837209302E+00  -0.133020223E+01  -0.464516867E-01  -0.464233896E-01   0.254736703E+03
   0.562161491E+02   0.732558140E+00  -0.133020223E+01  -0.464516867E-01  -0.464233896E-01   0.254736703E+03
   0.562161491E+02   0.627906977E+00  -0.133020223E+01  -0.464516867E-01  -0.464233896E-01   0.254736703E+03
   0.562161491E+02   0.523255814E+00  -0.133020223E+01  -0.464516867E-01  -0.464233896E-01   0.254736703E+03
   0.562161491E+02   0.418604651E+00  -0.133020223E+01  -0.464516867E-01  -0.464233896E-01   0.254736703E+03
   0.562161491E+02   0.313953488E+00  -0.133020223E+01  -0.464503628E-01  -0.464233896E-01   0.254736703E+03
   0.562161491E+02   0.104651163E+00  -0.133020223E+01  -0.455216739E-01  -0.464233896E-01   0.254736703E+03
   0.562161491E+02   0.000000000E+00  -0.133020223E+01   0.000000000E+00  -0.464233896E-01   0.132020956E+03
   0.562161491E+02   0.000000000E+00  -0.133020223E+01   0.000000000E+00  -0.464233896E-01   0.132020956E+03
   0.562161491E+02  -0.104077873E+00  -0.133020223E+01   0.452722958E-01  -0.464233896E-01   0.254736703E+03
   0.562161491E+02  -0.312233619E+00  -0.133020223E+01   0.461958976E-01  -0.464233896E-01   0.254736703E+03
   0.562161491E+02  -0.416311492E+00  -0.133020223E+01   0.461972193E-01  -0.464233896E-01   0.254736703E+03
   0.562161491E+02  -0.520389365E+00  -0.133020223E+01   0.461972193E-01  -0.464233896E-01   0.254736703E+03
   0.562161491E+02  -0.624467239E+00  -0.133020223E+01   0.461972193E-01  -0.464233896E-01   0.254736703E+03
   0.562161491E+02  -0.728545112E+00  -0.133020223E+01   0.461972193E-01  -0.464233896E-01   0.254736703E+03
   0.562161491E+02  -0.832622985E+00  -0.133020223E+01   0.461972193E-01  -0.464233896E-01   0.254736703E+03
   0.562161491E+02  -0.936700858E+00  -0.133020223E+01   0.461972193E-01  -0.464233896E-01   0.254736703E+03
   0.562161491E+02  -0.104077873E+01  -0.133020223E+01   0.461972193E-01  -0.464233896E-01   0.254736703E+03
   0.562161491E+02  -0.114485660E+01  -0.266049992E-01   0.400957802E+00  -0.484118684E-01   0.314874406E+03
   0.562161491E+02  -0.124893448E+01  -0.533079440E-03   0.407202879E+00  -0.482824682E-01   0.340420153E+03
   0.562161491E+02  -0.135301235E+01  -0.116397437E-04   0.407237372E+00  -0.482939967E-01   0.340889156E+03
   0.562161491E+02  -0.145709022E+01  -0.113526145E-05   0.420207821E+00  -0.534266744E-01   0.340876366E+03
   0.562161491E+02  -0.156116810E+01   0.327208845E-17   0.420249311E+00  -0.581200292E-01   0.340827977E+03
   0.562161491E+02  -0.166524597E+01   0.256411624E-17   0.420243982E+00  -0.595828045E-01   0.340848524E+03
   0.562161491E+02  -0.176932384E+01  -0.128508617E-17   0.586446179E+00  -0.773561404E-01   0.307712309E+03
   0.562161491E+02  -0.187340172E+01  -0.136891035E-17   0.602776010E+00  -0.796285571E-01   0.297621589E+03
   0.562161491E+02  -0.197747959E+01   0.157330122E-17   0.630944203E+00  -0.869532255E-01   0.297298056E+03
   0.562161491E+02  -0.208155746E+01   0.167326068E-17   0.631514136E+00  -0.887343694E-01   0.292404501E+03
   0.562161491E+02  -0.218563533E+01   0.193759886E-17   0.639153887E+00  -0.959958474E-01   0.292305563E+03
   0.562161491E+02  -0.228971321E+01   0.249307100E-17   0.639308926E+00  -0.966815867E-01   0.290170570E+03
   0.562161491E+02  -0.239379108E+01   0.194731035E-17   0.645669260E+00  -0.102409420E+00   0.288841228E+03
   0.562161491E+02  -0.249786895E+01   0.113220341E-17   0.653474045E+00  -0.108899292E+00   0.286271946E+03
   0.562161491E+02  -0.260194683E+01   0.886148687E-18   0.665536956E+00  -0.115415543E+00   0.284187859E+03
   0.562161491E+02  -0.270602470E+01   0.602496527E-18   0.670655941E+00  -0.121386210E+00   0.282513767E+03
   0.562161491E+02  -0.281010257E+01  -0.568364696E-18   0.681518052E+00  -0.125729204E+00   0.280562517E+03
   0.562161491E+02  -0.291418045E+01  -0.903689131E-18   0.686412970E+00  -0.126354517E+00   0.280392350E+03
   0.562161491E+02  -0.301825832E+01  -0.669717753E-18   0.692775253E+00  -0.127550088E+00   0.280238747E+03
   0.562161491E+02  -0.312233619E+01  -0.963782532E-18   0.698960498E+00  -0.127575404E+00   0.280240798E+03
   0.562161491E+02  -0.322641407E+01  -0.143716438E-18   0.700823196E+00  -0.128862847E+00   0.281240665E+03
   0.562161491E+02  -0.333049194E+01   0.809595671E-18   0.700823499E+00  -0.135289773E+00   0.281961895E+03
   0.562161491E+02  -0.343456981E+01   0.177047226E-17   0.700047329E+00  -0.142093311E+00   0.282943103E+03
   0.562161491E+02  -0.353864769E+01   0.248072383E-17   0.697585793E+00  -0.149078854E+00   0.284176018E+03
   0.562161491E+02  -0.364272556E+01   0.229254028E-17   0.694071124E+00  -0.161710687E+00   0.286058618E+03
   0.562161491E+02  -0.374680343E+01   0.208103103E-17   0.675966422E+00  -0.175826848E+00   0.289561891E+03
   0.562161491E+02  -0.385088130E+01   0.363126009E-17   0.638121933E+00  -0.176033577E+00   0.297573448E+03
   0.562161491E+02  -0.395495918E+01   0.130877480E-16   0.577508785E+00  -0.176012643E+00   0.305748414E+03
   0.562161491E+02  -0.405903705E+01   0.155373523E-16   0.473610735E+00  -0.165535580E+00   0.321950310E+03
   0.562161491E+02  -0.416311492E+01   0.136801842E-16   0.420419864E+00  -0.159488991E+00   0.326792193E+03
   0.562161491E+02  -0.426719280E+01   0.151673467E-16   0.323904045E+00  -0.134721379E+00   0.343614223E+03
   0.562161491E+02  -0.437127067E+01   0.143118614E-16   0.239266988E+00  -0.112773067E+00   0.348996558E+03
   0.562161491E+02  -0.442562245E+01   0.251202109E-16   0.150034583E+00  -0.832641326E-01   0.356238551E+03
   0.562661491E+02  -0.450405792E+01  -0.104572154E-01   0.154584157E-01  -0.143122421E-01   0.356271857E+03
   0.568127444E+02  -0.481790609E+01  -0.237878411E-01   0.127501100E-01  -0.125502261E-01   0.351051889E+03
   0.574093398E+02  -0.516046363E+01  -0.237904388E-01   0.126948615E-01  -0.120987118E-01   0.351067018E+03
   0.580059351E+02  -0.550302117E+01   0.328520849E-02  -0.202581259E-02  -0.138197082E-02   0.353253751E+03
   0.586025304E+02  -0.584557871E+01   0.144048789E-01  -0.836535095E-02  -0.994009295E-05   0.353327421E+03
   0.591991257E+02  -0.618813626E+01   0.391868669E-01  -0.227499103E-01   0.449261627E-05   0.353257052E+03
   0.597957210E+02  -0.653069380E+01   0.512947469E-01  -0.292408721E-01   0.511197411E-02   0.352690698E+03
   0.603923163E+02  -0.687325134E+01   0.570104512E-01  -0.322622448E-01   0.793553086E-02   0.351538734E+03
   0.609889116E+02  -0.721580889E+01   0.589296982E-01  -0.333658869E-01   0.803040084E-02   0.349644638E+03
   0.615855069E+02  -0.755836643E+01   0.589300076E-01  -0.333660701E-01   0.803368683E-02   0.347663367E+03
   0.621821023E+02  -0.790092397E+01   0.539835637E-01  -0.304972375E-01   0.800981005E-02   0.345903410E+03
   0.627786976E+02  -0.824348151E+01   0.506549091E-01  -0.285828597E-01   0.783847968E-02   0.345454095E+03
   0.633752929E+02  -0.858603906E+01   0.476428859E-01  -0.269387166E-01   0.684491296E-02   0.344918031E+03
   0.639718882E+02  -0.892859660E+01   0.456840908E-01  -0.258728693E-01   0.617130998E-02   0.344839644E+03
   0.645684835E+02  -0.927115414E+01   0.456815156E-01  -0.258715536E-01   0.615682631E-02   0.344850737E+03
   0.651650788E+02  -0.961371168E+01   0.462396075E-01  -0.262118633E-01   0.600962140E-02   0.344857086E+03
   0.657616741E+02  -0.995626923E+01   0.610306603E-01  -0.348345207E-01   0.566709433E-02   0.345284773E+03
   0.663582694E+02  -0.102988268E+02   0.792337147E-01  -0.454158266E-01   0.553620175E-02   0.345914628E+03
   0.669548648E+02  -0.106413843E+02   0.951315579E-01  -0.546452712E-01   0.553616840E-02   0.346667941E+03
   0.675514601E+02  -0.109839419E+02   0.111060124E+00  -0.638515333E-01   0.592030999E-02   0.347645045E+03
   0.681480554E+02  -0.113264994E+02   0.128827339E+00  -0.740513901E-01   0.701020402E-02   0.348306263E+03
   0.687446507E+02  -0.116690569E+02   0.144877235E+00  -0.832681864E-01   0.796789045E-02   0.348613490E+03
   0.693412460E+02  -0.120116145E+02   0.159326169E+00  -0.915694103E-01   0.879394449E-02   0.348635521E+03
   0.699378413E+02  -0.123541720E+02   0.173407380E+00  -0.996361743E-01   0.981966856E-02   0.348567288E+03
   0.705344366E+02  -0.126967296E+02   0.185028229E+00  -0.106259507E+00   0.109892119E-01   0.348377348E+03
   0.711310319E+02  -0.130392871E+02   0.198640513E+00  -0.114059269E+00   0.119652200E-01   0.347589427E+03
   0.717276273E+02  -0.133818447E+02   0.204625733E+00  -0.117491497E+00   0.123683969E-01   0.346682627E+03
   0.723242226E+02  -0.137244022E+02   0.212850285E+00  -0.122218160E+00   0.128245061E-01   0.346214501E+03
   0.729208179E+02  -0.140669597E+02   0.224951719E+00  -0.129130855E+00   0.138987414E-01   0.346170027E+03
   0.735174132E+02  -0.144095173E+02   0.228499254E+00  -0.131146928E+00   0.143116144E-01   0.345595498E+03
   0.741140085E+02  -0.147520748E+02   0.249419972E+00  -0.143164729E+00   0.155194270E-01   0.344881819E+03
   0.747106038E+02  -0.150946324E+02   0.265580469E+00  -0.152454383E+00   0.163992014E-01   0.344490354E+03
   0.753071991E+02  -0.154371899E+02   0.273619657E+00  -0.157043844E+00   0.171309672E-01   0.344056864E+03
   0.759037945E+02  -0.157797475E+02   0.278893066E+00  -0.160103728E+00   0.171450008E-01   0.343162580E+03
   0.765003898E+02  -0.161223050E+02   0.281311604E+00  -0.161518072E+00   0.171450135E-01   0.342484229E+03
   0.770969851E+02  -0.164648625E+02   0.281344033E+00  -0.161547219E+00   0.170452490E-01   0.341771919E+03
   0.776935804E+02  -0.168074201E+02   0.281336933E+00  -0.161548810E+00   0.168960260E-01   0.341720859E+03
   0.782901757E+02  -0.171499776E+02   0.281333195E+00  -0.161544548E+00   0.168890513E-01   0.341719617E+03
   0.788867710E+02  -0.174925352E+02   0.281333208E+00  -0.161544577E+00   0.168890531E-01   0.341476981E+03
   0.794833663E+02  -0.178350927E+02   0.279500025E+00  -0.160502239E+00   0.167075464E-01   0.341279817E+03
   0.800799616E+02  -0.181776503E+02   0.279056669E+00  -0.160273658E+00   0.164432158E-01   0.341280341E+03
   0.806765570E+02  -0.185202078E+02   0.279046469E+00  -0.160267994E+00   0.164369051E-01   0.340848501E+03
   0.812731523E+02  -0.188627653E+02   0.278371627E+00  -0.159875267E+00   0.164447321E-01   0.340506173E+03
   0.818697476E+02  -0.192053229E+02   0.278371442E+00  -0.159875158E+00   0.164447214E-01   0.340461339E+03
   0.824663429E+02  -0.195478804E+02   0.303672277E+00  -0.174356250E+00   0.184079287E-01   0.340461054E+03
   0.830129382E+02  -0.198617286E+02   0.306539358E+00  -0.174371488E+00   0.184111385E-01   0.340436387E+03
   0.850629382E+02  -0.198904380E+02   0.306599506E+00  -0.349562488E-02   0.922817447E-02   0.248592755E+03
   0.870629382E+02  -0.198904380E+02   0.281997125E+00  -0.128236032E-03  -0.362317821E-03   0.246403935E+03
   0.890629382E+02  -0.198904380E+02   0.281507573E+00  -0.620842844E-04  -0.563458428E-03   0.246435253E+03
   0.910629382E+02  -0.198904380E+02   0.281496609E+00  -0.597647913E-04  -0.568324177E-03   0.246853069E+03
   0.930629382E+02  -0.198904380E+02   0.277523529E+00  -0.614935182E-04  -0.585072121E-03   0.246921123E+03
   0.950629382E+02  -0.198904380E+02   0.277442782E+00  -0.616388096E-04  -0.586454478E-03   0.247122073E+03
   0.970629382E+02  -0.198904380E+02   0.265658914E+00  -0.546974206E-04  -0.520411531E-03   0.247207681E+03
   0.990629382E+02  -0.198904380E+02   0.264687171E+00  -0.539133103E-04  -0.512951214E-03   0.247207390E+03
   0.101062938E+03  -0.198904380E+02   0.264676809E+00  -0.539132987E-04  -0.512951104E-03   0.247207526E+03
   0.101062938E+03   0.200810649E+02   0.309041594E+00   0.103623337E-03   0.276023699E-08   0.247200106E+03
   0.990629382E+02   0.200810811E+02   0.309052122E+00   0.103848732E-03   0.579156324E-08   0.247197630E+03
   0.970629382E+02   0.200810986E+02   0.310040344E+00   0.113139638E-03   0.412553686E-08   0.247196532E+03
   0.950629382E+02   0.200811176E+02   0.320238876E+00   0.134694844E-03   0.465173454E-08   0.247108566E+03
   0.930629382E+02   0.200811379E+02   0.320238869E+00   0.130987382E-03   0.651982327E-08   0.246922535E+03
   0.910629382E+02   0.200811598E+02   0.320229706E+00   0.127837006E-04   0.849596826E-08   0.246864090E+03
   0.890629382E+02   0.200811831E+02   0.319822415E+00   0.156404168E-04   0.794071977E-07   0.246866378E+03
   0.870629382E+02   0.200812079E+02   0.311490551E+00   0.903461035E-03   0.737282078E-06   0.246979919E+03
   0.850629382E+02   0.200812340E+02   0.311490588E+00   0.502712743E-01   0.128341582E-05   0.252530325E+03
   0.830129382E+02   0.200524499E+02   0.308801765E+00   0.177723953E+00   0.231084923E-06   0.335201229E+03
   0.824483810E+02   0.197355660E+02   0.308998202E+00   0.178405742E+00  -0.615855518E-07   0.340335183E+03
   0.818418642E+02   0.193891004E+02   0.283349314E+00   0.164339819E+00  -0.146279491E-07   0.340345934E+03
   0.812394378E+02   0.190432816E+02   0.283350107E+00   0.164339979E+00   0.118435095E-07   0.340355151E+03
   0.806393235E+02   0.186982002E+02   0.284054172E+00   0.164756717E+00  -0.347830977E-08   0.340661193E+03
   0.800404266E+02   0.183536166E+02   0.284200456E+00   0.164922139E+00  -0.500533024E-08   0.341043844E+03
   0.794432779E+02   0.180098711E+02   0.284889854E+00   0.165352468E+00  -0.441049983E-08   0.341043993E+03
   0.788461286E+02   0.176661526E+02   0.286818909E+00   0.166383297E+00  -0.545140999E-08   0.341388958E+03
   0.782489676E+02   0.173224549E+02   0.287064078E+00   0.166387177E+00  -0.451621830E-08   0.341496795E+03
   0.776517956E+02   0.169787769E+02   0.287195297E+00   0.166532783E+00  -0.276609513E-08   0.341495666E+03
   0.770546130E+02   0.166351175E+02   0.291772990E+00   0.168957991E+00  -0.272573827E-08   0.341687410E+03
   0.764574205E+02   0.162914755E+02   0.292320954E+00   0.169378650E+00  -0.283513043E-08   0.342397882E+03
   0.758602187E+02   0.159478498E+02   0.296417032E+00   0.171662045E+00  -0.121191954E-08   0.343151449E+03
   0.752630082E+02   0.156042392E+02   0.303483253E+00   0.175842369E+00   0.467185157E-08   0.344015512E+03
   0.746657899E+02   0.152606421E+02   0.311792573E+00   0.180684753E+00   0.107612198E-07   0.344416995E+03
   0.740685644E+02   0.149170572E+02   0.318546995E+00   0.184058492E+00   0.835931951E-08   0.344852955E+03
   0.734713325E+02   0.145734830E+02   0.332599741E+00   0.192543944E+00   0.237142940E-08   0.345568524E+03
   0.728740951E+02   0.142299178E+02   0.350077582E+00   0.203142391E+00   0.323231945E-08   0.346128824E+03
   0.722768532E+02   0.138863598E+02   0.357317314E+00   0.206082600E+00   0.263669457E-08   0.346123861E+03
   0.716796078E+02   0.135428070E+02   0.365897812E+00   0.211745334E+00  -0.373977146E-08   0.346502221E+03
   0.710823599E+02   0.131992573E+02   0.371769360E+00   0.214232628E+00  -0.335947767E-08   0.347257475E+03
   0.704851109E+02   0.128557083E+02   0.371769283E+00   0.214232578E+00   0.456591227E-08   0.347818269E+03
   0.698878621E+02   0.125121575E+02   0.370983419E+00   0.213718580E+00   0.109168476E-07   0.347863946E+03
   0.692906149E+02   0.121686020E+02   0.370126628E+00   0.213050324E+00   0.156452936E-07   0.347802120E+03
   0.686933710E+02   0.118250387E+02   0.368392279E+00   0.211858970E+00   0.264040461E-07   0.347732922E+03
   0.680961323E+02   0.114814641E+02   0.362560100E+00   0.208421832E+00   0.448501243E-07   0.347372728E+03
   0.674989006E+02   0.111378746E+02   0.355659144E+00   0.204546668E+00   0.575119075E-07   0.346551276E+03
   0.669016784E+02   0.107942658E+02   0.350959840E+00   0.201634817E+00   0.562262536E-07   0.345541949E+03
   0.663044680E+02   0.104506330E+02   0.350959954E+00   0.201285115E+00   0.460361139E-07   0.344806962E+03
   0.657072723E+02   0.101069714E+02   0.351088740E+00   0.201285313E+00   0.285969464E-07   0.344195680E+03
   0.651100941E+02   0.976327530E+01   0.351964185E+00   0.201659334E+00   0.362775876E-08   0.343680941E+03
   0.645129369E+02   0.941953866E+01   0.354046991E+00   0.203432263E+00  -0.148625790E-07   0.343543625E+03
   0.639158042E+02   0.907575515E+01   0.357260608E+00   0.205372946E+00  -0.289711643E-07   0.343540877E+03
   0.633186998E+02   0.873191804E+01   0.361707594E+00   0.207889465E+00  -0.478013785E-07   0.343684070E+03
   0.627216279E+02   0.838802006E+01   0.366398256E+00   0.209826472E+00  -0.701237083E-07   0.344334225E+03
   0.621245926E+02   0.804405415E+01   0.366416659E+00   0.209826470E+00  -0.932924653E-07   0.344968565E+03
   0.615275982E+02   0.770001331E+01   0.366396062E+00   0.209771913E+00  -0.958534932E-07   0.346690648E+03
   0.609306489E+02   0.735589059E+01   0.364414148E+00   0.206774572E+00  -0.719019684E-07   0.348488050E+03
   0.603337485E+02   0.701168003E+01   0.348634874E+00   0.198830629E+00  -0.627182542E-07   0.350392813E+03
   0.597369006E+02   0.666737648E+01   0.335786303E+00   0.188220893E+00  -0.627997601E-07   0.351428106E+03
   0.591401080E+02   0.632297596E+01   0.315050756E+00   0.173719599E+00  -0.285251727E-07   0.351430297E+03
   0.585433729E+02   0.597847599E+01   0.287228458E+00   0.158155642E+00  -0.262420751E-07   0.351433581E+03
   0.579466966E+02   0.563387566E+01   0.262745059E+00   0.145800676E+00   0.183098495E-07   0.351725754E+03
   0.573500792E+02   0.528917560E+01   0.255469284E+00   0.120838492E+00   0.255609822E-06   0.352537642E+03
   0.567535205E+02   0.494437797E+01   0.108312648E+00   0.113066044E+00  -0.216555648E-06   0.353996612E+03
   0.561745598E+02   0.459983672E+01   0.106512628E+00   0.110195210E+00  -0.120737696E-05   0.353960562E+03
   0.561046678E+02   0.448231216E+01   0.106535853E+00  -0.333086610E-01  -0.139149969E-05   0.350416813E+03
   0.561004939E+02   0.440562754E+01   0.102457552E+00  -0.115238528E+00  -0.122823928E-05   0.346757303E+03
   0.561008419E+02   0.430074065E+01   0.342443061E-01  -0.246763994E+00  -0.134558740E-05   0.340811726E+03
   0.561012372E+02   0.419584736E+01   0.125984578E-01  -0.349973277E+00  -0.105559565E-05   0.326443186E+03
   0.561016732E+02   0.409094848E+01  -0.428539256E-01  -0.425986312E+00  -0.122164924E-06   0.316289125E+03
   0.561021430E+02   0.398604475E+01  -0.641271777E-01  -0.478499992E+00   0.761324500E-06   0.306404665E+03
   0.561026399E+02   0.388113687E+01  -0.641257565E-01  -0.520899787E+00   0.929725541E-06   0.298057962E+03
   0.561031576E+02   0.377622546E+01  -0.554086145E-01  -0.559408231E+00   0.789069789E-06   0.296599221E+03
   0.561036902E+02   0.367131108E+01  -0.554108149E-01  -0.587180262E+00   0.798898452E-06   0.290745639E+03
   0.561042322E+02   0.356639420E+01  -0.554097718E-01  -0.617465765E+00   0.914231566E-06   0.287428699E+03
   0.561047784E+02   0.346147525E+01  -0.546622072E-01  -0.640183917E+00   0.963164377E-06   0.284829289E+03
   0.561053240E+02   0.335655460E+01  -0.509050245E-01  -0.664210774E+00   0.783825500E-06   0.283201918E+03
   0.561058645E+02   0.325163257E+01  -0.487789385E-01  -0.695988600E+00   0.354919696E-06   0.280713101E+03
   0.561063960E+02   0.314670945E+01  -0.452652882E-01  -0.697143169E+00  -0.390743801E-06   0.279767219E+03
   0.561069144E+02   0.304178547E+01  -0.400901861E-01  -0.697136501E+00  -0.932184322E-06   0.279767820E+03
   0.561074163E+02   0.293686085E+01  -0.377303020E-01  -0.692443691E+00  -0.122340173E-05   0.279934676E+03
   0.561078986E+02   0.283193576E+01  -0.342740783E-01  -0.684622791E+00  -0.145616823E-05   0.280816814E+03
   0.561083582E+02   0.272701034E+01  -0.329692236E-01  -0.669362518E+00  -0.146154257E-05   0.282507105E+03
   0.561087924E+02   0.262208473E+01  -0.329287317E-01  -0.656070463E+00  -0.128445310E-05   0.284818998E+03
   0.561091982E+02   0.251715905E+01  -0.329327845E-01  -0.645175381E+00  -0.100858709E-05   0.286546817E+03
   0.561095738E+02   0.241223336E+01  -0.337881461E-01  -0.639225370E+00  -0.654191213E-06   0.288760908E+03